VARIABLES="x" "y" "z" 
ZONE T= "output.dat"
N=4, E=3, F=FEPoint, ET=LINESEG
 1.0 6.0 1.0
 2.0 7.0 2.0
 3.0 8.0 4.0
 4.0 9.0 9.2
 1 2
 2 3
 2 4
